------------------------------------------------------------
          Invoking FHI-aims ...

          When using FHI-aims, please cite the following reference:

            Volker Blum, Ralf Gehrke, Felix Hanke, Paula Havu,
            Ville Havu, Xinguo Ren, Karsten Reuter, and Matthias Scheffler,
            'Ab Initio Molecular Simulations with Numeric Atom-Centered Orbitals',
            Computer Physics Communications 180, 2175-2196 (2009)

          In addition, many other developments in FHI-aims are likely important for
          your particular application. A partial list of references is given at the end of
          this file. Thank you for giving credit to the authors of these developments.

          For any questions about FHI-aims, please visit our slack channel at

            https://fhi-aims.slack.com

          and our main development and support site at

            https://aims-git.rz-berlin.mpg.de .

          The latter site, in particular, has a wiki to collect information, as well
          as an issue tracker to log discussions, suggest improvements, and report issues
          or bugs. https://aims-git.rz-berlin.mpg.de is also the main development site
          of the project and all new and updated code versions can be obtained there.
          Please send an email to aims-coordinators@fhi-berlin.mpg.de and we will add
          you to these sites. They are for you and everyone is welcome there.

------------------------------------------------------------



  Date     :  20230927, Time     :  135830.560
  Time zero on CPU 1             :   0.174495800000000E+01  s.
  Internal wall clock time zero  :           465055110.560  s.

  FHI-aims created a unique identifier for this run for later identification
  aims_uuid : FF608413-8B36-49A0-AF76-4DE9587493CF

  Build configuration of the current instance of FHI-aims
  -------------------------------------------------------
  FHI-aims version      : 220309
  Commit number         : 232d594a3
  CMake host system     : Linux-5.4.0-146-generic
  CMake version         : 3.26.3
  Fortran compiler      : /home/tpurcell/intel/oneapi/mpi/2021.6.0/bin/mpiifort (Intel) version 2021.6.0.20220226
  Fortran compiler flags: -O3 -ip -fp-model precise
  C compiler            : /home/tpurcell/intel/oneapi/compiler/2022.1.0/linux/bin/intel64/icc (Intel) version 2021.6.0.20220226
  C compiler flags      : -m64 -O3 -ip -fp-model precise -std=gnu99
  Using MPI
  Using ScaLAPACK
  Using LibXC
  Using i-PI
  Using RLSY
  Linking against: /home/tpurcell/intel/oneapi/mkl/2022.1.0/lib/intel64/libmkl_scalapack_lp64.so
                   /home/tpurcell/intel/oneapi/mkl/2022.1.0/lib/intel64/libmkl_blacs_intelmpi_lp64.so
                   /home/tpurcell/intel/oneapi/mkl/2022.1.0/lib/intel64/libmkl_intel_lp64.so
                   /home/tpurcell/intel/oneapi/mkl/2022.1.0/lib/intel64/libmkl_sequential.so
                   /home/tpurcell/intel/oneapi/mkl/2022.1.0/lib/intel64/libmkl_core.so

  Using        1 parallel tasks.
  Task        0 on host nomadbook-7 reporting.

  Performing system and environment tests:
  *** Environment variable OMP_NUM_THREADS is set to 
  2
  *** For performance reasons you might want to set it to 1
  | Checking for ScaLAPACK...
  | Testing pdtran()...
  | All pdtran() tests passed.

  Obtaining array dimensions for all initial allocations:
  
  -----------------------------------------------------------------------
  Parsing control.in (first pass over file, find array dimensions only).
  The contents of control.in will be repeated verbatim below
  unless switched off by setting 'verbatim_writeout .false.' .
  in the first line of control.in .
  -----------------------------------------------------------------------
  
  #===============================================================================
  # Created using the Atomic Simulation Environment (ASE)
  
  # Wed Sep 27 13:58:28 2023
  
  #===============================================================================
  xc                                 pbe
  relativistic                       atomic_zora scalar
  compute_forces                     .true.
  k_grid                             6 6 6
  #===============================================================================
  
  ################################################################################
  #
  #  FHI-aims code project
  #  VB, Fritz-Haber Institut, 2009
  #
  #  Suggested "light" defaults for Si atom (to be pasted into control.in file)
  #  Be sure to double-check any results obtained with these settings for post-processing,
  #  e.g., with the "tight" defaults and larger basis sets.
  #
  #  2020/09/08 Added f function to "light" after reinspection of Delta test outcomes.
  #             This was done for all of Al-Cl and is a tricky decision since it makes
  #             "light" calculations measurably more expensive for these elements.
  #             Nevertheless, outcomes for P, S, Cl (and to some extent, Si) appear
  #             to justify this choice.
  #
  ################################################################################
    species        Si
  #     global species definitions
      nucleus             14
      mass                28.0855
  #
      l_hartree           4
  #
      cut_pot             3.5          1.5  1.0
      basis_dep_cutoff    1e-4
  #
      radial_base         42 5.0
      radial_multiplier   1
      angular_grids       specified
        division   0.5866   50
        division   0.9616  110
        division   1.2249  194
        division   1.3795  302
  #      division   1.4810  434
  #      division   1.5529  590
  #      division   1.6284  770
  #      division   1.7077  974
  #      division   2.4068 1202
  #      outer_grid   974
        outer_grid 302
  ################################################################################
  #
  #  Definition of "minimal" basis
  #
  ################################################################################
  #     valence basis states
      valence      3  s   2.
      valence      3  p   2.
  #     ion occupancy
      ion_occ      3  s   1.
      ion_occ      3  p   1.
  ################################################################################
  #
  #  Suggested additional basis functions. For production calculations,
  #  uncomment them one after another (the most important basis functions are
  #  listed first).
  #
  #  Constructed for dimers: 1.75 A, 2.0 A, 2.25 A, 2.75 A, 3.75 A
  #
  ################################################################################
  #  "First tier" - improvements: -571.96 meV to -37.03 meV
       hydro 3 d 4.2
       hydro 2 p 1.4
       hydro 4 f 6.2
       ionic 3 s auto
  #  "Second tier" - improvements: -16.76 meV to -3.03 meV
  #     hydro 3 d 9
  #     hydro 5 g 9.4
  #     hydro 4 p 4
  #     hydro 1 s 0.65
  #  "Third tier" - improvements: -3.89 meV to -0.60 meV
  #     ionic 3 d auto
  #     hydro 3 s 2.6
  #     hydro 4 f 8.4
  #     hydro 3 d 3.4
  #     hydro 3 p 7.8
  #  "Fourth tier" - improvements: -0.33 meV to -0.11 meV
  #     hydro 2 p 1.6
  #     hydro 5 g 10.8
  #     hydro 5 f 11.2
  #     hydro 3 d 1
  #     hydro 4 s 4.5
  #  Further basis functions that fell out of the optimization - noise
  #  level... < -0.08 meV
  #     hydro 4 d 6.6
  #     hydro 5 g 16.4
  #     hydro 4 d 9
  
  -----------------------------------------------------------------------
  Completed first pass over input file control.in .
  -----------------------------------------------------------------------
  
  
  -----------------------------------------------------------------------
  Parsing geometry.in (first pass over file, find array dimensions only).
  The contents of geometry.in will be repeated verbatim below
  unless switched off by setting 'verbatim_writeout .false.' .
  in the first line of geometry.in .
  -----------------------------------------------------------------------
  
  #===============================================================================
  # Created using the Atomic Simulation Environment (ASE)
  
  # Wed Sep 27 13:58:28 2023
  
  #=======================================================
  lattice_vector 5.6303521099999996 -0.0000000900000001 -0.0000000899999999
  lattice_vector 0.0000000899999996 5.6303523699999998 0.0000000099999999
  lattice_vector 0.0000000700000003 0.0000000099999997 5.6303523699999998
  atom_frac 0.5017760905187862 0.5000000008880439 0.4999999991119562 Si
  atom_frac 0.5000000026641317 0.0000000008880439 0.9999999991119561 Si
  atom_frac 0.0000000026641316 0.5000000008880436 0.9999999991119559 Si
  atom_frac 0.0000000026641316 0.0000000008880439 0.4999999991119562 Si
  atom_frac 0.7499999977798899 0.7500000004440217 0.7500000022201095 Si
  atom_frac 0.7499999977798901 0.2500000004440219 0.2500000022201097 Si
  atom_frac 0.2499999977798899 0.7500000004440218 0.2500000022201094 Si
  atom_frac 0.2499999977798899 0.2500000004440219 0.7500000022201094 Si
  
  -----------------------------------------------------------------------
  Completed first pass over input file geometry.in .
  -----------------------------------------------------------------------
  

  Basic array size parameters:
  | Number of species                 :        1
  | Number of atoms                   :        8
  | Number of lattice vectors         :        3
  | Max. basis fn. angular momentum   :        3
  | Max. atomic/ionic basis occupied n:        3
  | Max. number of basis fn. types    :        3
  | Max. radial fns per species/type  :        5
  | Max. logarithmic grid size        :     1346
  | Max. radial integration grid size :       42
  | Max. angular integration grid size:      302
  | Max. angular grid division number :        8
  | Radial grid for Hartree potential :     1346
  | Number of spin channels           :        1

------------------------------------------------------------
          Reading file control.in.
------------------------------------------------------------
  XC: Using PBE gradient-corrected functionals.
  Scalar relativistic treatment of kinetic energy: on-site free-atom approximation to ZORA.
  Forces will be computed.
  Found k-point grid:         6         6         6
 
  Reading configuration options for species Si                  .
  | Found nuclear charge :  14.0000
  | Found atomic mass :    28.0855000000000      amu
  | Found l_max for Hartree potential  :   4
  | Found cutoff potl. onset [A], width [A], scale factor :    3.50000    1.50000    1.00000
  | Threshold for basis-dependent cutoff potential is   0.100000E-03
  | Found data for basic radial integration grid :    42 points, outermost radius =    5.000 A
  | Found multiplier for basic radial grid :   1
  | Found angular grid specification: user-specified.
  | Specified grid contains     5 separate shells.
  | Check grid settings after all constraints further below.
  | Found free-atom valence shell :  3 s   2.000
  | Found free-atom valence shell :  3 p   2.000
  | Found free-ion valence shell :  3 s   1.000
  | Found free-ion valence shell :  3 p   1.000
  | Found hydrogenic basis function :  3 d   4.200
  | Found hydrogenic basis function :  2 p   1.400
  | Found hydrogenic basis function :  4 f   6.200
  | Found ionic basis function :  3 s , default cutoff radius.
  Species Si                  : Missing cutoff potential type.
  Defaulting to exp(1/x)/(1-x)^2 type cutoff potential.
  Species Si: No 'logarithmic' tag. Using default grid for free atom:
  | Default logarithmic grid data [bohr] : 0.1000E-03 0.1000E+03 0.1012E+01
  | Will include ionic basis functions of  2.0-fold positive Si                   ion.
  Species Si: On-site basis accuracy parameter (for Gram-Schmidt orthonormalisation) not specified.
  Using default value basis_acc =  0.1000000E-03.
  Species Si                  : Using default innermost maximum threshold i_radial=  2 for radial functions.
  Species Si                  : Default cutoff onset for free atom density etc. : 0.35000000E+01 AA.
  Species Si                  : Basic radial grid will be enhanced according to radial_multiplier =   1, to contain    42 grid points.
 
  Finished reading input file 'control.in'.
 
------------------------------------------------------------


------------------------------------------------------------
          Reading geometry description geometry.in.
------------------------------------------------------------
  | The smallest distance between any two atoms is         2.43225424 AA.
  | The first atom of this pair is atom number                      1 .
  | The second atom of this pair is atom number                     6 .
  | Wigner-Seitz cell of the first atom image           0     1     0 .
  | (The Wigner-Seitz cell of the second atom is 0 0 0  by definition.)

  Symmetry information by spglib:
  | Precision set to  0.1E-04
  | Number of Operations  : 4
  | Space group           : 35
  | International         : Cmm2
  | Schoenflies           : C2v^11
  Input structure read successfully.
  The structure contains        8 atoms,  and a total of        112.000 electrons.

  Input geometry:
  | Unit cell:
  |        5.63035211       -0.00000009       -0.00000009
  |        0.00000009        5.63035237        0.00000001
  |        0.00000007        0.00000001        5.63035237
  | Atomic structure:
  |       Atom                x [A]            y [A]            z [A]
  |    1: Species Si            2.82517615        2.81517615        2.81517614
  |    2: Species Si            2.81517614       -0.00000003        5.63035232
  |    3: Species Si            0.00000013        2.81517620        5.63035237
  |    4: Species Si            0.00000005        0.00000001        2.81517618
  |    5: Species Si            4.22276419        4.22276422        4.22276423
  |    6: Species Si            4.22276411        1.40758803        1.40758804
  |    7: Species Si            1.40758810        4.22276426        1.40758809
  |    8: Species Si            1.40758809        1.40758808        4.22276427

  Lattice parameters for 3D lattice (in Angstroms) :     5.630352    5.630352    5.630352
  Angle(s) between unit vectors (in degrees)       :    90.000000   90.000000   90.000000


  Quantities derived from the lattice vectors:
  | Reciprocal lattice vector 1:  1.115949 -0.000000 -0.000000
  | Reciprocal lattice vector 2:  0.000000  1.115949 -0.000000
  | Reciprocal lattice vector 3:  0.000000 -0.000000  1.115949
  | Unit cell volume                               :   0.178487E+03  A^3

  Fractional coordinates:
                         L1                L2                L3
       atom_frac         0.50177609        0.50000000        0.50000000  Si
       atom_frac         0.50000000        0.00000000        1.00000000  Si
       atom_frac         0.00000000        0.50000000        1.00000000  Si
       atom_frac         0.00000000        0.00000000        0.50000000  Si
       atom_frac         0.75000000        0.75000000        0.75000000  Si
       atom_frac         0.75000000        0.25000000        0.25000000  Si
       atom_frac         0.25000000        0.75000000        0.25000000  Si
       atom_frac         0.25000000        0.25000000        0.75000000  Si

 
  Finished reading input file 'control.in'.
 

------------------------------------------------------------
          Reading geometry description geometry.in.
------------------------------------------------------------
 
  Consistency checks for stacksize environment parameter are next.
 
  | Maximum stacksize for task 0: unlimited
  | Current stacksize for task 0: unlimited
 
  Consistency checks for the contents of control.in are next.
 
  MPI_IN_PLACE appears to work with this MPI implementation.
  | Keeping use_mpi_in_place .true. (see manual).
  Target number of points in a grid batch is not set. Defaulting to  100
  Method for grid partitioning is not set. Defaulting to parallel hash+maxmin partitioning.
  Batch size limit is not set. Defaulting to    200
  By default, will store active basis functions for each batch.
  If in need of memory, prune_basis_once .false. can be used to disable this option.
  communication_type for Hartree potential was not specified.
  Defaulting to calc_hartree .
  Defaulting to Pulay charge density mixer.
  Pulay mixer: Number of relevant iterations not set.
  Defaulting to    8 iterations.
  Pulay mixer: Number of initial linear mixing iterations not set.
  Defaulting to    0 iterations.
  Work space size for distributed Hartree potential not set.
  Defaulting to   0.200000E+03 MB.
  Mixing parameter for charge density mixing has not been set.
  Using default: charge_mix_param =     0.0500.
  The mixing parameter will be adjusted in iteration number     2 of the first full s.c.f. cycle only.
  Algorithm-dependent basis array size parameters:
  | n_max_pulay                         :        8
  Maximum number of self-consistency iterations not provided.
  Presetting  1000 iterations.
  Presetting      1001 iterations before the initial mixing cycle
  is restarted anyway using the sc_init_iter criterion / keyword.
  Presetting a factor      1.000 between actual scf density residual
  and density convergence criterion sc_accuracy_rho below which sc_init_iter
  takes no effect.
 * No s.c.f. convergence criteria (sc_accuracy_*) were provided in control.in.
 * The run will proceed with a reasonable default guess, but please check whether.
 * the s.c.f. cycles seem to take too much or too little time.
  Geometry relaxation not requested: no relaxation will be performed.
  Forces evaluation will include force correction term due to incomplete self-consistency (default).
 * Notice: The s.c.f. convergence criterion sc_accuracy_rho was not provided.
 * We used to stop in this case, and ask the user to provide reasonable
 * scf convergence criteria. However, this led some users to employ criteria
 * that led to extremely long run times, e.g., for simple relaxation.
 * We now preset a default value for sc_accuracy_rho if it is not set.
 * You may still wish to check if this setting is too tight or too loose for your needs.
 * Based on n_atoms and forces and force-correction status, FHI-aims chose sc_accuracy_rho =  0.923760E-05 .
  Force calculation: scf convergence accuracy of forces not set.
  Defaulting to 'sc_accuracy_forces not_checked'.
  Handling of forces: Unphysical translation and rotation will be removed from forces.
  No accuracy limit for integral partition fn. given. Defaulting to  0.1000E-14.
  No threshold value for u(r) in integrations given. Defaulting to  0.1000E-05.
  No occupation type (smearing scheme) given. Defaulting to Gaussian broadening, width =  0.1000E-01 eV.
  The width will be adjusted in iteration number     2 of the first full s.c.f. cycle only.
  S.C.F. convergence parameters will be adjusted in iteration number     2 of the first full s.c.f. cycle only.
  No accuracy for occupation numbers given. Defaulting to  0.1000E-12.
  No threshold value for occupation numbers given. Defaulting to  0.0000E+00.
  No accuracy for fermi level given. Defaulting to  0.1000E-19.
  Maximum # of iterations to find E_F not set. Defaulting to  200.
  Preferred method for the eigenvalue solver ('KS_method') not specified in 'control.in'.
  Defaulting to serial version LAPACK (via ELSI).
  Will not use alltoall communication since running on < 1024 CPUs.
  Threshold for basis singularities not set.
  Default threshold for basis singularities:  0.1000E-04
  partition_type (choice of integration weights) for integrals was not specified.
  | Using a version of the partition function of Stratmann and coworkers ('stratmann_sparse').
  | At each grid point, the set of atoms used to build the partition table is smoothly restricted to
  | only those atoms whose free-atom density would be non-zero at that grid point.
  Partitioning for Hartree potential was not defined. Using partition_type for integrals.
  | Adjusted default value of keyword multip_moments_threshold to:       0.10000000E-11
  | This value may affect high angular momentum components of the Hartree potential in periodic systems.
  Spin handling was not defined in control.in. Defaulting to unpolarized case.
  Angular momentum expansion for Kerker preconditioner not set explicitly.
  | Using default value of   0
  No explicit requirement for turning off preconditioner.
  | By default, it will be turned off when the charge convergence reaches
  | sc_accuracy_rho  =   0.923760E-05
  No special mixing parameter while Kerker preconditioner is on.
  Using default: charge_mix_param =     0.0500.
  No q(lm)/r^(l+1) cutoff set for long-range Hartree potential.
  | Using default value of  0.100000E-09 .
  | Verify using the multipole_threshold keyword.
  Defaulting to new monopole extrapolation.
  Density update method: automatic selection selected.
  Using density matrix based charge density update.
  Using density matrix based charge density update.
  Using packed matrix style: index .
  Defaulting to use time-reversal symmetry for k-point grid.
  Charge integration errors on the 3D integration grid will be compensated
  by explicit normalization and distribution of residual charges.
  Use the "compensate_multipole_errors" flag to change this behaviour.
  Set 'collect_eigenvectors' to be '.true.' for all serial calculations. This is mandatory.
  Set 'collect_eigenvectors' to be '.true.' for KS_method lapack_fast and serial.
 
  Consistency checks for the contents of geometry.in are next.
 

  Range separation radius for Ewald summation (hartree_convergence_parameter):      4.04577347 bohr.
  Number of empty states per atom not set in control.in - providing a guess from actual geometry.
  | Total number of empty states used during s.c.f. cycle:       24
  If you use a very high smearing, use empty_states (per atom!) in control.in to increase this value.

  Structure-dependent array size parameters: 
  | Maximum number of distinct radial functions  :        9
  | Maximum number of basis functions            :      200
  | Number of Kohn-Sham states (occupied + empty):       80
------------------------------------------------------------

------------------------------------------------------------
          Preparing all fixed parts of the calculation.
------------------------------------------------------------
  Determining machine precision:
    2.225073858507201E-308
  Setting up grids for atomic and cluster calculations.

  Creating wave function, potential, and density for free atoms.
  Runtime choices for atomic solver:
  | atomic solver xc        : PBE
  | compute density gradient: 1
  | compute kinetic density : F

  Species: Si

  List of occupied orbitals and eigenvalues:
    n    l              occ      energy [Ha]    energy [eV]
    1    0           2.0000       -65.767597     -1789.6274
    2    0           2.0000        -5.115610      -139.2028
    3    0           2.0000        -0.388877       -10.5819
    2    1           6.0000        -3.500197       -95.2452
    3    1           2.0000        -0.140803        -3.8315


  Adding cutoff potential to free-atom effective potential.
  Creating fixed part of basis set: Ionic, confined, hydrogenic.
 
  Si                   ion:

  List of free ionic orbitals and eigenvalues:
    n    l      energy [Ha]    energy [eV]
    1    0       -66.641157     -1813.3982
    2    0        -5.964274      -162.2962
    3    0        -1.073878       -29.2217
    2    1        -4.350005      -118.3697
    3    1        -0.776571       -21.1316


  List of ionic basis orbitals and eigenvalues:
    n    l      energy [Ha]    energy [eV]    outer radius [A]
    3    0        -1.073857       -29.2211       4.214062

 
  Si                   hydrogenic:
 
  List of hydrogenic basis orbitals: 
    n    l      effective z      eigenvalue [eV]  inner max. [A]     outer max. [A]     outer radius [A]   
    3    2         4.200000       -26.6624           1.139231           1.139231           4.534782
    2    1         1.400000        -6.4613           1.472672           1.472672           4.590560
    4    3         6.200000       -32.6778           1.368518           1.368518           4.534782
 
  Creating atomic-like basis functions for current effective potential.

  Species Si                  :

  List of atomic basis orbitals and eigenvalues:
    n    l      energy [Ha]    energy [eV]    outer radius [A]
    1    0       -65.767597     -1789.6274       0.789468
    2    0        -5.115610      -139.2028       2.815114
    3    0        -0.388877       -10.5819       4.534782
    2    1        -3.500197       -95.2452       3.259919
    3    1        -0.140803        -3.8315       4.590560

  Assembling full basis from fixed parts.
  | Species Si :   atomic orbital   1 s accepted.
  | Species Si :   atomic orbital   2 s accepted.
  | Species Si :    ionic orbital   3 s accepted.
  | Species Si :   atomic orbital   3 s accepted.
  | Species Si :   atomic orbital   2 p accepted.
  | Species Si :   atomic orbital   3 p accepted.
  | Species Si :    hydro orbital   2 p accepted.
  | Species Si :    hydro orbital   3 d accepted.
  | Species Si :    hydro orbital   4 f accepted.
 
  Basis size parameters after reduction:
  | Total number of radial functions:        9
  | Total number of basis functions :      200
 
  Per-task memory consumption for arrays in subroutine allocate_ext:
  |           3.106072MB.
  Testing on-site integration grid accuracy.
  |  Species  Function  <phi|h_atom|phi> (log., in eV)  <phi|h_atom|phi> (rad., in eV)
           1        1              -1789.6273740966              -1789.6266345813
           1        2               -139.2028173376               -139.2028132357
           1        3                -10.2237226190                -10.2235219160
           1        4                  5.6355365073                  5.5558633521 ***
           1        5                -95.2452114632                -95.2452114537
           1        6                 -3.8413965043                 -3.8571292824
           1        7                  6.4035522332                  6.2277973139 ***
           1        8                  6.3860095444                  6.3839142324
           1        9                 19.3722793793                 19.3677446767
 * Note: Onsite integrals marked "***" above are less accurate than
 * onsite_accuracy_threshold =    0.03000 eV. Usually, this is harmless.
 * When in doubt, tighten the "radial" and/or "radial_multiplier" flags to check.

  Preparing densities etc. for the partition functions (integrals / Hartree potential).

  Preparations completed.
  max(cpu_time)          :      0.135 s.
  Wall clock time (cpu1) :      0.135 s.
------------------------------------------------------------

------------------------------------------------------------
          Begin self-consistency loop: Initialization.

          Date     :  20230927, Time     :  135830.708
------------------------------------------------------------

  Initializing index lists of integration centers etc. from given atomic structure:
  Mapping all atomic coordinates to central unit cell.

  Initializing the k-points
  Using symmetry for reducing the k-points
  | k-points reduced from:      216 to      112
  | Number of k-points                             :       112
  The eigenvectors in the calculations are COMPLEX.
  | K-points in task   0:       112
  | Number of basis functions in the Hamiltonian integrals :      3126
  | Number of basis functions in a single unit cell        :       200
  | Number of centers in hartree potential         :       977
  | Number of centers in hartree multipole         :       479
  | Number of centers in electron density summation:       307
  | Number of centers in basis integrals           :       323
  | Number of centers in integrals                 :       142
  | Number of centers in hamiltonian               :       307
  | Consuming        129 KiB for k_phase.
  | Number of super-cells (origin) [n_cells]                     :         729
  | Number of super-cells (after PM_index) [n_cells]             :          74
  | Number of super-cells in hamiltonian [n_cells_in_hamiltonian]:          74
  | Size of matrix packed + index [n_hamiltonian_matrix_size] :      325151
  | Estimated reciprocal-space cutoff momentum G_max:         2.30301545 bohr^-1 .
  | Reciprocal lattice points for long-range Hartree potential:     250
  Partitioning the integration grid into batches with parallel hashing+maxmin method.
  | Number of batches:      512
  | Maximal batch size:      90
  | Minimal batch size:      85
  | Average batch size:      87.562
  | Standard deviation of batch sizes:       1.500

  Integration load balanced across     1 MPI tasks.
  Work distribution over tasks is as follows:
  Task     0 has      44832 integration points.
  Initializing partition tables, free-atom densities, potentials, etc. across the integration grid (initialize_grid_storage).
  | initialize_grid_storage: Actual outermost partition radius vs. multipole_radius_free
  | (-- VB: in principle, multipole_radius_free should be larger, hence this output)
  | Species        1: Confinement radius =              4.999999999999999 AA, multipole_radius_free =              5.000694715736543 AA.
  | Species        1: outer_partition_radius set to              5.000694715736543 AA .
  | The sparse table of interatomic distances needs        361.39 kbyte instead of       834.63 kbyte of memory.
  | Net number of integration points:    44832
  | of which are non-zero points    :    39504
  | Numerical average free-atom electrostatic potential    :    -11.78047860 eV
  Renormalizing the initial density to the exact electron count on the 3D integration grid.
  | Initial density: Formal number of electrons (from input files) :     112.0000000000
  | Integrated number of electrons on 3D grid     :     112.0149692650
  | Charge integration error                      :       0.0149692650
  | Normalization factor for density and gradient :       0.9998663637
  Renormalizing the free-atom superposition density to the exact electron count on the 3D integration grid.
  | Formal number of electrons (from input files) :     112.0000000000
  | Integrated number of electrons on 3D grid     :     112.0149692650
  | Charge integration error                      :       0.0149692650
  | Normalization factor for density and gradient :       0.9998663637
  Obtaining max. number of non-zero basis functions in each batch (get_n_compute_maxes).
  | Maximal number of non-zero basis functions:      681 in task     0
  Allocating       27.344 MB for KS_eigenvector_complex
  Integrating Hamiltonian matrix: batch-based integration.
  Time summed over all CPUs for integration: real work        1.884 s, elapsed        1.884 s
  Integrating overlap matrix.
  Time summed over all CPUs for integration: real work        1.282 s, elapsed        1.282 s
  Decreasing sparse matrix size:
  | Tolerance:  0.1000E-12
  Hamiltonian matrix
  | Array has   295505 nonzero elements out of   325151 elements
  | Sparsity factor is 0.091
  Overlap matrix
  | Array has   272063 nonzero elements out of   325151 elements
  | Sparsity factor is 0.163
  New size of hamiltonian matrix:      295529

  Updating Kohn-Sham eigenvalues and eigenvectors using ELSI and the (modified) LAPACK eigensolver.
  Singularity check in k-point 1, task 0 (analysis for other k-points/tasks may follow below):
  Overlap matrix is not singular
  | Lowest and highest eigenvalues :  0.5285E-03,  0.5892E+01
  Finished singularity check of overlap matrix
  | Time :     0.005 s
  Starting LAPACK eigensolver
  Finished Cholesky decomposition
  | Time :     0.001 s
  Finished transformation to standard eigenproblem
  | Time :     0.001 s
  Finished solving standard eigenproblem
  | Time :     0.005 s
  Finished back-transformation of eigenvectors
  | Time :     0.000 s

  Obtaining occupation numbers and chemical potential using ELSI.
  | Chemical potential (Fermi level):    -5.88564085 eV
  Writing Kohn-Sham eigenvalues.
  K-point:       1 at    0.000000    0.000000    0.000000 (in units of recip. lattice)

  State    Occupation    Eigenvalue [Ha]    Eigenvalue [eV]
      1       2.00000         -65.783568        -1790.06197
      2       2.00000         -65.783568        -1790.06197
      3       2.00000         -65.783488        -1790.05978
      4       2.00000         -65.783486        -1790.05972
      5       2.00000         -65.783486        -1790.05972
      6       2.00000         -65.783486        -1790.05972
      7       2.00000         -65.783404        -1790.05751
      8       2.00000         -65.783404        -1790.05751
      9       2.00000          -5.135090         -139.73290
     10       2.00000          -5.135058         -139.73205
     11       2.00000          -5.134964         -139.72948
     12       2.00000          -5.134962         -139.72942
     13       2.00000          -5.134962         -139.72942
     14       2.00000          -5.134962         -139.72942
     15       2.00000          -5.134867         -139.72683
     16       2.00000          -5.134836         -139.72600
     17       2.00000          -3.519753          -95.77734
     18       2.00000          -3.519724          -95.77656
     19       2.00000          -3.519712          -95.77623
     20       2.00000          -3.519709          -95.77615
     21       2.00000          -3.519700          -95.77590
     22       2.00000          -3.519649          -95.77452
     23       2.00000          -3.519640          -95.77427
     24       2.00000          -3.519610          -95.77347
     25       2.00000          -3.519585          -95.77279
     26       2.00000          -3.519439          -95.76880
     27       2.00000          -3.519430          -95.76857
     28       2.00000          -3.519429          -95.76853
     29       2.00000          -3.519429          -95.76853
     30       2.00000          -3.519425          -95.76842
     31       2.00000          -3.519419          -95.76825
     32       2.00000          -3.519264          -95.76404
     33       2.00000          -3.519247          -95.76358
     34       2.00000          -3.519216          -95.76274
     35       2.00000          -3.519209          -95.76254
     36       2.00000          -3.519157          -95.76115
     37       2.00000          -3.519152          -95.76101
     38       2.00000          -3.519145          -95.76081
     39       2.00000          -3.519134          -95.76052
     40       2.00000          -3.519116          -95.76002
     41       2.00000          -0.629264          -17.12315
     42       2.00000          -0.493001          -13.41525
     43       2.00000          -0.492682          -13.40655
     44       2.00000          -0.492367          -13.39798
     45       2.00000          -0.492367          -13.39798
     46       2.00000          -0.492055          -13.38951
     47       2.00000          -0.491733          -13.38074
     48       2.00000          -0.310354           -8.44516
     49       2.00000          -0.310056           -8.43706
     50       2.00000          -0.310036           -8.43652
     51       2.00000          -0.310034           -8.43645
     52       2.00000          -0.310016           -8.43597
     53       2.00000          -0.309720           -8.42792
     54       2.00000          -0.218820           -5.95441
     55       2.00000          -0.218378           -5.94237
     56       2.00000          -0.217934           -5.93029
     57       0.00000          -0.176825           -4.81166
     58       0.00000          -0.176714           -4.80862
     59       0.00000          -0.176422           -4.80070
     60       0.00000          -0.176422           -4.80068
     61       0.00000          -0.176136           -4.79290
     62       0.00000          -0.176023           -4.78982
     63       0.00000          -0.139045           -3.78360
     64       0.00000          -0.119859           -3.26152
     65       0.00000          -0.119600           -3.25447
     66       0.00000          -0.119344           -3.24750
     67       0.00000           0.078198            2.12786
     68       0.00000           0.078199            2.12790
     69       0.00000           0.092567            2.51889
     70       0.00000           0.124263            3.38136
     71       0.00000           0.124563            3.38954
     72       0.00000           0.124687            3.39292
     73       0.00000           0.124703            3.39334
     74       0.00000           0.124805            3.39610
     75       0.00000           0.125112            3.40447
     76       0.00000           0.178677            4.86206
     77       0.00000           0.179230            4.87710
     78       0.00000           0.179276            4.87834
     79       0.00000           0.179287            4.87865
     80       0.00000           0.179345            4.88024

  What follows are estimated values for band gap, HOMO, LUMO, etc.
  | They are estimated on a discrete k-point grid and not necessarily exact.
  | For converged numbers, create a DOS and/or band structure plot on a denser k-grid.

  Highest occupied state (VBM) at     -5.93028746 eV (relative to internal zero)
  | Occupation number:      2.00000000
  | K-point:       1 at    0.000000    0.000000    0.000000 (in units of recip. lattice)

  Lowest unoccupied state (CBM) at    -4.96509999 eV (relative to internal zero)
  | Occupation number:      0.00000000
  | K-point:      21 at    0.166667    0.000000    0.000000 (in units of recip. lattice)

  ESTIMATED overall HOMO-LUMO gap:      0.96518748 eV between HOMO at k-point 1 and LUMO at k-point 21
  | This appears to be an indirect band gap.
  | Smallest direct gap :      1.11862329 eV for k_point 1 at    0.000000    0.000000    0.000000 (in units of recip. lattice)
  The gap value is above 0.2 eV. Unless you are using a very sparse k-point grid,
  this system is most likely an insulator or a semiconductor.
  Calculating total energy contributions from superposition of free atom densities.

  Total energy components:
  | Sum of eigenvalues            :       -1316.14990341 Ha      -35814.26108132 eV
  | XC energy correction          :        -166.68585827 Ha       -4535.75297997 eV
  | XC potential correction       :         215.25608511 Ha        5857.41609799 eV
  | Free-atom electrostatic energy:       -1055.37100643 Ha      -28718.10624617 eV
  | Hartree energy correction     :           0.00000000 Ha           0.00000000 eV
  | Entropy correction            :          -0.00000000 Ha          -0.00000000 eV
  | ---------------------------
  | Total energy                  :       -2322.95068299 Ha      -63210.70420947 eV
  | Total energy, T -> 0          :       -2322.95068299 Ha      -63210.70420947 eV  <-- do not rely on this value for anything but (periodic) metals
  | Electronic free energy        :       -2322.95068299 Ha      -63210.70420947 eV

  Derived energy quantities:
  | Kinetic energy                :        2328.68331778 Ha       63366.69713879 eV
  | Electrostatic energy          :       -4484.94814251 Ha     -122041.64836829 eV
  | Energy correction for multipole
  | error in Hartree potential    :           0.00000000 Ha           0.00000000 eV
  | Sum of eigenvalues per atom                           :       -4476.78263516 eV
  | Total energy (T->0) per atom                          :       -7901.33802618 eV  <-- do not rely on this value for anything but (periodic) metals
  | Electronic free energy per atom                       :       -7901.33802618 eV
  Initialize hartree_potential_storage
  Max. number of atoms included in rho_multipole:            8

  End scf initialization - timings             :  max(cpu_time)    wall_clock(cpu1)
  | Time for scf. initialization                :        6.018 s           6.019 s
  | Boundary condition initialization           :        0.090 s           0.090 s
  | Integration                                 :        3.169 s           3.170 s
  | Solution of K.-S. eqns.                     :        1.492 s           1.493 s
  | Grid partitioning                           :        0.211 s           0.210 s
  | Preloading free-atom quantities on grid     :        0.899 s           0.898 s
  | Free-atom superposition energy              :        0.154 s           0.154 s
  | Total energy evaluation                     :        0.000 s           0.000 s

  Partial memory accounting:
  | Current value for overall tracked memory usage:
  |   Minimum:       32.981 MB (on task 0)
  |   Maximum:       32.981 MB (on task 0)
  |   Average:       32.981 MB
  | Peak value for overall tracked memory usage:
  |   Minimum:       38.502 MB (on task 0 after allocating wave)
  |   Maximum:       38.502 MB (on task 0 after allocating wave)
  |   Average:       38.502 MB
  | Largest tracked array allocation so far:
  |   Minimum:       27.344 MB (KS_eigenvector_complex on task 0)
  |   Maximum:       27.344 MB (KS_eigenvector_complex on task 0)
  |   Average:       27.344 MB
  Note:  These values currently only include a subset of arrays which are explicitly tracked.
  The "true" memory usage will be greater.
------------------------------------------------------------
  Evaluating new KS density using the density matrix
  Evaluating density matrix
  Time summed over all CPUs for getting density from density matrix: real work        3.836 s, elapsed        3.836 s
  Integration grid: deviation in total charge (<rho> - N_e) =  -1.321609E-12

  Time for density update prior                :  max(cpu_time)    wall_clock(cpu1)
  | self-consistency iterative process          :        3.953 s           3.954 s

------------------------------------------------------------
          Begin self-consistency iteration #    1

  Date     :  20230927, Time     :  135840.681
------------------------------------------------------------
  Pulay mixing of updated and previous charge densities.
  Renormalizing the density to the exact electron count on the 3D integration grid.
  | Formal number of electrons (from input files) :     112.0000000000
  | Integrated number of electrons on 3D grid     :     111.9991443296
  | Charge integration error                      :      -0.0008556704
  | Normalization factor for density and gradient :       1.0000076400

  Evaluating partitioned Hartree potential by multipole expansion.
  | Original multipole sum: apparent total charge =   0.395306E-12
  | Sum of charges compensated after spline to logarithmic grids =  -0.679660E-05
  | Analytical far-field extrapolation by fixed multipoles:
  | Hartree multipole sum: apparent total charge =   0.395297E-12
  Summing up the Hartree potential.
  Time summed over all CPUs for potential: real work        1.684 s, elapsed        1.684 s
  | RMS charge density error from multipole expansion :   0.888618E-03
  | Average real-space part of the electrostatic potential :      0.01451724 eV

  Integrating Hamiltonian matrix: batch-based integration.
  Time summed over all CPUs for integration: real work        1.872 s, elapsed        1.872 s

  Updating Kohn-Sham eigenvalues and eigenvectors using ELSI and the (modified) LAPACK eigensolver.
  Starting LAPACK eigensolver
  Finished Cholesky decomposition
  | Time :     0.000 s
  Finished transformation to standard eigenproblem
  | Time :     0.001 s
  Finished solving standard eigenproblem
  | Time :     0.005 s
  Finished back-transformation of eigenvectors
  | Time :     0.000 s

  Obtaining occupation numbers and chemical potential using ELSI.
  | Chemical potential (Fermi level):    -5.86253646 eV
  Writing Kohn-Sham eigenvalues.
  K-point:       1 at    0.000000    0.000000    0.000000 (in units of recip. lattice)

  State    Occupation    Eigenvalue [Ha]    Eigenvalue [eV]
      1       2.00000         -65.781862        -1790.01554
      2       2.00000         -65.781862        -1790.01554
      3       2.00000         -65.781791        -1790.01361
      4       2.00000         -65.781789        -1790.01356
      5       2.00000         -65.781789        -1790.01355
      6       2.00000         -65.781789        -1790.01355
      7       2.00000         -65.781717        -1790.01159
      8       2.00000         -65.781717        -1790.01159
      9       2.00000          -5.133814         -139.69819
     10       2.00000          -5.133781         -139.69730
     11       2.00000          -5.133693         -139.69490
     12       2.00000          -5.133691         -139.69485
     13       2.00000          -5.133691         -139.69485
     14       2.00000          -5.133691         -139.69484
     15       2.00000          -5.133602         -139.69243
     16       2.00000          -5.133570         -139.69155
     17       2.00000          -3.518438          -95.74157
     18       2.00000          -3.518411          -95.74084
     19       2.00000          -3.518399          -95.74052
     20       2.00000          -3.518396          -95.74044
     21       2.00000          -3.518388          -95.74022
     22       2.00000          -3.518337          -95.73882
     23       2.00000          -3.518333          -95.73871
     24       2.00000          -3.518303          -95.73790
     25       2.00000          -3.518280          -95.73727
     26       2.00000          -3.518128          -95.73314
     27       2.00000          -3.518121          -95.73294
     28       2.00000          -3.518120          -95.73291
     29       2.00000          -3.518120          -95.73290
     30       2.00000          -3.518116          -95.73279
     31       2.00000          -3.518110          -95.73265
     32       2.00000          -3.517951          -95.72831
     33       2.00000          -3.517936          -95.72790
     34       2.00000          -3.517904          -95.72704
     35       2.00000          -3.517902          -95.72698
     36       2.00000          -3.517850          -95.72557
     37       2.00000          -3.517846          -95.72545
     38       2.00000          -3.517839          -95.72526
     39       2.00000          -3.517829          -95.72499
     40       2.00000          -3.517811          -95.72452
     41       2.00000          -0.628582          -17.10457
     42       2.00000          -0.492216          -13.39387
     43       2.00000          -0.491900          -13.38528
     44       2.00000          -0.491587          -13.37676
     45       2.00000          -0.491587          -13.37676
     46       2.00000          -0.491277          -13.36833
     47       2.00000          -0.490959          -13.35967
     48       2.00000          -0.309691           -8.42711
     49       2.00000          -0.309398           -8.41915
     50       2.00000          -0.309377           -8.41858
     51       2.00000          -0.309375           -8.41851
     52       2.00000          -0.309356           -8.41801
     53       2.00000          -0.309065           -8.41009
     54       2.00000          -0.217970           -5.93127
     55       2.00000          -0.217529           -5.91927
     56       2.00000          -0.217086           -5.90721
     57       0.00000          -0.176486           -4.80243
     58       0.00000          -0.176372           -4.79932
     59       0.00000          -0.176081           -4.79141
     60       0.00000          -0.176080           -4.79139
     61       0.00000          -0.175795           -4.78362
     62       0.00000          -0.175679           -4.78048
     63       0.00000          -0.138041           -3.75630
     64       0.00000          -0.119332           -3.24718
     65       0.00000          -0.119072           -3.24013
     66       0.00000          -0.118816           -3.23314
     67       0.00000           0.078695            2.14139
     68       0.00000           0.078696            2.14143
     69       0.00000           0.092890            2.52766
     70       0.00000           0.125055            3.40292
     71       0.00000           0.125359            3.41118
     72       0.00000           0.125480            3.41448
     73       0.00000           0.125495            3.41490
     74       0.00000           0.125594            3.41759
     75       0.00000           0.125905            3.42604
     76       0.00000           0.179350            4.88037
     77       0.00000           0.179902            4.89537
     78       0.00000           0.179947            4.89660
     79       0.00000           0.179958            4.89691
     80       0.00000           0.180015            4.89846

  What follows are estimated values for band gap, HOMO, LUMO, etc.
  | They are estimated on a discrete k-point grid and not necessarily exact.
  | For converged numbers, create a DOS and/or band structure plot on a denser k-grid.

  Highest occupied state (VBM) at     -5.90721381 eV (relative to internal zero)
  | Occupation number:      2.00000000
  | K-point:       1 at    0.000000    0.000000    0.000000 (in units of recip. lattice)

  Lowest unoccupied state (CBM) at    -4.95531815 eV (relative to internal zero)
  | Occupation number:      0.00000000
  | K-point:      21 at    0.166667    0.000000    0.000000 (in units of recip. lattice)

  ESTIMATED overall HOMO-LUMO gap:      0.95189566 eV between HOMO at k-point 1 and LUMO at k-point 21
  | This appears to be an indirect band gap.
  | Smallest direct gap :      1.10478149 eV for k_point 1 at    0.000000    0.000000    0.000000 (in units of recip. lattice)
  The gap value is above 0.2 eV. Unless you are using a very sparse k-point grid,
  this system is most likely an insulator or a semiconductor.

  Total energy components:
  | Sum of eigenvalues            :       -1316.01681326 Ha      -35810.63951403 eV
  | XC energy correction          :        -166.69548118 Ha       -4536.01483274 eV
  | XC potential correction       :         215.26847216 Ha        5857.75316664 eV
  | Free-atom electrostatic energy:       -1055.37100643 Ha      -28718.10624617 eV
  | Hartree energy correction     :          -0.13445453 Ha          -3.65869389 eV
  | Entropy correction            :          -0.00000000 Ha          -0.00000000 eV
  | ---------------------------
  | Total energy                  :       -2322.94928324 Ha      -63210.66612020 eV
  | Total energy, T -> 0          :       -2322.94928324 Ha      -63210.66612020 eV  <-- do not rely on this value for anything but (periodic) metals
  | Electronic free energy        :       -2322.94928324 Ha      -63210.66612020 eV

  Derived energy quantities:
  | Kinetic energy                :        2328.71249323 Ha       63367.49104321 eV
  | Electrostatic energy          :       -4484.96629529 Ha     -122042.14233067 eV
  | Energy correction for multipole
  | error in Hartree potential    :           0.00215822 Ha           0.05872822 eV
  | Sum of eigenvalues per atom                           :       -4476.32993925 eV
  | Total energy (T->0) per atom                          :       -7901.33326502 eV  <-- do not rely on this value for anything but (periodic) metals
  | Electronic free energy per atom                       :       -7901.33326502 eV
  Evaluating new KS density using the density matrix
  Evaluating density matrix
  Time summed over all CPUs for getting density from density matrix: real work        3.844 s, elapsed        3.844 s
  Integration grid: deviation in total charge (<rho> - N_e) =  -1.080025E-12

  Self-consistency convergence accuracy:
  | Change of charge density      :  0.2028E+00
  | Change of sum of eigenvalues  :  0.3622E+01 eV
  | Change of total energy        :  0.3809E-01 eV


------------------------------------------------------------
  End self-consistency iteration #     1       :  max(cpu_time)    wall_clock(cpu1)
  | Time for this iteration                     :        9.731 s           9.733 s
  | Charge density update                       :        3.944 s           3.946 s
  | Density mixing & preconditioning            :        1.154 s           1.154 s
  | Hartree multipole update                    :        0.006 s           0.006 s
  | Hartree multipole summation                 :        1.700 s           1.700 s
  | Integration                                 :        1.873 s           1.873 s
  | Solution of K.-S. eqns.                     :        1.054 s           1.054 s
  | Total energy evaluation                     :        0.000 s           0.000 s

  Partial memory accounting:
  | Current value for overall tracked memory usage:
  |   Minimum:       32.981 MB (on task 0)
  |   Maximum:       32.981 MB (on task 0)
  |   Average:       32.981 MB
  | Peak value for overall tracked memory usage:
  |   Minimum:       39.325 MB (on task 0 after allocating gradient_basis_wave)
  |   Maximum:       39.325 MB (on task 0 after allocating gradient_basis_wave)
  |   Average:       39.325 MB
  | Largest tracked array allocation so far:
  |   Minimum:       27.344 MB (KS_eigenvector_complex on task 0)
  |   Maximum:       27.344 MB (KS_eigenvector_complex on task 0)
  |   Average:       27.344 MB
  Note:  These values currently only include a subset of arrays which are explicitly tracked.
  The "true" memory usage will be greater.
------------------------------------------------------------

------------------------------------------------------------
          Begin self-consistency iteration #    2

  Date     :  20230927, Time     :  135850.414
------------------------------------------------------------
  Pulay mixing of updated and previous charge densities.
  Renormalizing the density to the exact electron count on the 3D integration grid.
  | Formal number of electrons (from input files) :     112.0000000000
  | Integrated number of electrons on 3D grid     :     111.9849015773
  | Charge integration error                      :      -0.0150984227
  | Normalization factor for density and gradient :       1.0001348255

  Evaluating partitioned Hartree potential by multipole expansion.
  | Original multipole sum: apparent total charge =   0.522866E-12
  | Sum of charges compensated after spline to logarithmic grids =  -0.130684E-03
  | Analytical far-field extrapolation by fixed multipoles:
  | Hartree multipole sum: apparent total charge =   0.522883E-12
  Summing up the Hartree potential.
  Time summed over all CPUs for potential: real work        2.150 s, elapsed        2.150 s
  | RMS charge density error from multipole expansion :   0.170871E-01
  | Average real-space part of the electrostatic potential :      0.27556930 eV

  Integrating Hamiltonian matrix: batch-based integration.
  Time summed over all CPUs for integration: real work        2.279 s, elapsed        2.279 s

  Updating Kohn-Sham eigenvalues and eigenvectors using ELSI and the (modified) LAPACK eigensolver.
  Starting LAPACK eigensolver
  Finished Cholesky decomposition
  | Time :     0.001 s
  Finished transformation to standard eigenproblem
  | Time :     0.002 s
  Finished solving standard eigenproblem
  | Time :     0.006 s
  Finished back-transformation of eigenvectors
  | Time :     0.001 s

  Obtaining occupation numbers and chemical potential using ELSI.
  | Chemical potential (Fermi level):    -5.40851024 eV
  What follows are estimated values for band gap, HOMO, LUMO, etc.
  | They are estimated on a discrete k-point grid and not necessarily exact.
  | For converged numbers, create a DOS and/or band structure plot on a denser k-grid.

  Highest occupied state (VBM) at     -5.45312011 eV (relative to internal zero)
  | Occupation number:      2.00000000
  | K-point:       1 at    0.000000    0.000000    0.000000 (in units of recip. lattice)

  Lowest unoccupied state (CBM) at    -4.73264902 eV (relative to internal zero)
  | Occupation number:      0.00000000
  | K-point:      21 at    0.166667    0.000000    0.000000 (in units of recip. lattice)

  ESTIMATED overall HOMO-LUMO gap:      0.72047109 eV between HOMO at k-point 1 and LUMO at k-point 21
  | This appears to be an indirect band gap.
  | Smallest direct gap :      0.86321045 eV for k_point 1 at    0.000000    0.000000    0.000000 (in units of recip. lattice)
  The gap value is above 0.2 eV. Unless you are using a very sparse k-point grid,
  this system is most likely an insulator or a semiconductor.

  Checking to see if s.c.f. parameters should be adjusted.
  The system likely has a gap. Increased the default Pulay mixing parameter (charge_mix_param). Value:   0.200000 .
  Kept the default occupation width. Value:   0.010000 eV.

  Total energy components:
  | Sum of eigenvalues            :       -1313.62629515 Ha      -35745.59020672 eV
  | XC energy correction          :        -166.91529952 Ha       -4541.99639414 eV
  | XC potential correction       :         215.54737706 Ha        5865.34255510 eV
  | Free-atom electrostatic energy:       -1055.37100643 Ha      -28718.10624617 eV
  | Hartree energy correction     :          -2.57334900 Ha         -70.02438909 eV
  | Entropy correction            :          -0.00000000 Ha          -0.00000000 eV
  | ---------------------------
  | Total energy                  :       -2322.93857305 Ha      -63210.37468102 eV
  | Total energy, T -> 0          :       -2322.93857305 Ha      -63210.37468102 eV  <-- do not rely on this value for anything but (periodic) metals
  | Electronic free energy        :       -2322.93857305 Ha      -63210.37468102 eV

  Derived energy quantities:
  | Kinetic energy                :        2329.13165826 Ha       63378.89710405 eV
  | Electrostatic energy          :       -4485.15493179 Ha     -122047.27539093 eV
  | Energy correction for multipole
  | error in Hartree potential    :           0.04150189 Ha           1.12932386 eV
  | Sum of eigenvalues per atom                           :       -4468.19877584 eV
  | Total energy (T->0) per atom                          :       -7901.29683513 eV  <-- do not rely on this value for anything but (periodic) metals
  | Electronic free energy per atom                       :       -7901.29683513 eV
  Evaluating new KS density using the density matrix
  Evaluating density matrix
  Time summed over all CPUs for getting density from density matrix: real work        5.091 s, elapsed        5.091 s
  Integration grid: deviation in total charge (<rho> - N_e) =  -1.335820E-12

  Self-consistency convergence accuracy:
  | Change of charge density      :  0.1925E+00
  | Change of sum of eigenvalues  :  0.6505E+02 eV
  | Change of total energy        :  0.2914E+00 eV


------------------------------------------------------------
  End self-consistency iteration #     2       :  max(cpu_time)    wall_clock(cpu1)
  | Time for this iteration                     :       12.419 s          12.420 s
  | Charge density update                       :        5.341 s           5.341 s
  | Density mixing & preconditioning            :        1.137 s           1.137 s
  | Hartree multipole update                    :        0.005 s           0.005 s
  | Hartree multipole summation                 :        2.168 s           2.169 s
  | Integration                                 :        2.279 s           2.280 s
  | Solution of K.-S. eqns.                     :        1.488 s           1.488 s
  | Total energy evaluation                     :        0.000 s           0.000 s

  Partial memory accounting:
  | Current value for overall tracked memory usage:
  |   Minimum:       32.981 MB (on task 0)
  |   Maximum:       32.981 MB (on task 0)
  |   Average:       32.981 MB
  | Peak value for overall tracked memory usage:
  |   Minimum:       39.325 MB (on task 0 after allocating gradient_basis_wave)
  |   Maximum:       39.325 MB (on task 0 after allocating gradient_basis_wave)
  |   Average:       39.325 MB
  | Largest tracked array allocation so far:
  |   Minimum:       27.344 MB (KS_eigenvector_complex on task 0)
  |   Maximum:       27.344 MB (KS_eigenvector_complex on task 0)
  |   Average:       27.344 MB
  Note:  These values currently only include a subset of arrays which are explicitly tracked.
  The "true" memory usage will be greater.
------------------------------------------------------------

------------------------------------------------------------
          Begin self-consistency iteration #    3

  Date     :  20230927, Time     :  135902.835
------------------------------------------------------------
  Pulay mixing of updated and previous charge densities.
  Renormalizing the density to the exact electron count on the 3D integration grid.
  | Formal number of electrons (from input files) :     112.0000000000
  | Integrated number of electrons on 3D grid     :     112.0038003568
  | Charge integration error                      :       0.0038003568
  | Normalization factor for density and gradient :       0.9999660694

  Evaluating partitioned Hartree potential by multipole expansion.
  | Original multipole sum: apparent total charge =   0.267661E-13
  | Sum of charges compensated after spline to logarithmic grids =  -0.136258E-03
  | Analytical far-field extrapolation by fixed multipoles:
  | Hartree multipole sum: apparent total charge =   0.267213E-13
  Summing up the Hartree potential.
  Time summed over all CPUs for potential: real work        2.127 s, elapsed        2.127 s
  | RMS charge density error from multipole expansion :   0.174381E-01
  | Average real-space part of the electrostatic potential :      0.24746143 eV

  Integrating Hamiltonian matrix: batch-based integration.
  Time summed over all CPUs for integration: real work        2.218 s, elapsed        2.218 s

  Updating Kohn-Sham eigenvalues and eigenvectors using ELSI and the (modified) LAPACK eigensolver.
  Starting LAPACK eigensolver
  Finished Cholesky decomposition
  | Time :     0.001 s
  Finished transformation to standard eigenproblem
  | Time :     0.001 s
  Finished solving standard eigenproblem
  | Time :     0.005 s
  Finished back-transformation of eigenvectors
  | Time :     0.000 s

  Obtaining occupation numbers and chemical potential using ELSI.
  | Chemical potential (Fermi level):    -5.45392870 eV
  What follows are estimated values for band gap, HOMO, LUMO, etc.
  | They are estimated on a discrete k-point grid and not necessarily exact.
  | For converged numbers, create a DOS and/or band structure plot on a denser k-grid.

  Highest occupied state (VBM) at     -5.49847749 eV (relative to internal zero)
  | Occupation number:      2.00000000
  | K-point:       1 at    0.000000    0.000000    0.000000 (in units of recip. lattice)

  Lowest unoccupied state (CBM) at    -4.74841181 eV (relative to internal zero)
  | Occupation number:      0.00000000
  | K-point:      21 at    0.166667    0.000000    0.000000 (in units of recip. lattice)

  ESTIMATED overall HOMO-LUMO gap:      0.75006568 eV between HOMO at k-point 1 and LUMO at k-point 21
  | This appears to be an indirect band gap.
  | Smallest direct gap :      0.89443246 eV for k_point 1 at    0.000000    0.000000    0.000000 (in units of recip. lattice)
  The gap value is above 0.2 eV. Unless you are using a very sparse k-point grid,
  this system is most likely an insulator or a semiconductor.

  Total energy components:
  | Sum of eigenvalues            :       -1314.29039712 Ha      -35763.66134060 eV
  | XC energy correction          :        -166.85805710 Ha       -4540.43874876 eV
  | XC potential correction       :         215.47311861 Ha        5863.32187985 eV
  | Free-atom electrostatic energy:       -1055.37100643 Ha      -28718.10624617 eV
  | Hartree energy correction     :          -1.89146867 Ha         -51.46948129 eV
  | Entropy correction            :          -0.00000000 Ha          -0.00000000 eV
  | ---------------------------
  | Total energy                  :       -2322.93781072 Ha      -63210.35393698 eV
  | Total energy, T -> 0          :       -2322.93781072 Ha      -63210.35393698 eV  <-- do not rely on this value for anything but (periodic) metals
  | Electronic free energy        :       -2322.93781072 Ha      -63210.35393698 eV

  Derived energy quantities:
  | Kinetic energy                :        2328.38237520 Ha       63358.50807446 eV
  | Electrostatic energy          :       -4484.46212881 Ha     -122028.42326267 eV
  | Energy correction for multipole
  | error in Hartree potential    :           0.04270648 Ha           1.16210245 eV
  | Sum of eigenvalues per atom                           :       -4470.45766757 eV
  | Total energy (T->0) per atom                          :       -7901.29424212 eV  <-- do not rely on this value for anything but (periodic) metals
  | Electronic free energy per atom                       :       -7901.29424212 eV
  Evaluating new KS density using the density matrix
  Evaluating density matrix
  Time summed over all CPUs for getting density from density matrix: real work        4.215 s, elapsed        4.215 s
  Integration grid: deviation in total charge (<rho> - N_e) =  -1.278977E-12

  Self-consistency convergence accuracy:
  | Change of charge density      :  0.3086E-01
  | Change of sum of eigenvalues  : -0.1807E+02 eV
  | Change of total energy        :  0.2074E-01 eV


------------------------------------------------------------
  End self-consistency iteration #     3       :  max(cpu_time)    wall_clock(cpu1)
  | Time for this iteration                     :       11.138 s          11.138 s
  | Charge density update                       :        4.344 s           4.343 s
  | Density mixing & preconditioning            :        1.250 s           1.249 s
  | Hartree multipole update                    :        0.006 s           0.006 s
  | Hartree multipole summation                 :        2.148 s           2.148 s
  | Integration                                 :        2.218 s           2.219 s
  | Solution of K.-S. eqns.                     :        1.172 s           1.172 s
  | Total energy evaluation                     :        0.000 s           0.001 s

  Partial memory accounting:
  | Current value for overall tracked memory usage:
  |   Minimum:       32.981 MB (on task 0)
  |   Maximum:       32.981 MB (on task 0)
  |   Average:       32.981 MB
  | Peak value for overall tracked memory usage:
  |   Minimum:       39.325 MB (on task 0 after allocating gradient_basis_wave)
  |   Maximum:       39.325 MB (on task 0 after allocating gradient_basis_wave)
  |   Average:       39.325 MB
  | Largest tracked array allocation so far:
  |   Minimum:       27.344 MB (KS_eigenvector_complex on task 0)
  |   Maximum:       27.344 MB (KS_eigenvector_complex on task 0)
  |   Average:       27.344 MB
  Note:  These values currently only include a subset of arrays which are explicitly tracked.
  The "true" memory usage will be greater.
------------------------------------------------------------

------------------------------------------------------------
          Begin self-consistency iteration #    4

  Date     :  20230927, Time     :  135913.973
------------------------------------------------------------
  Pulay mixing of updated and previous charge densities.
  Renormalizing the density to the exact electron count on the 3D integration grid.
  | Formal number of electrons (from input files) :     112.0000000000
  | Integrated number of electrons on 3D grid     :     112.0019743932
  | Charge integration error                      :       0.0019743932
  | Normalization factor for density and gradient :       0.9999823718

  Evaluating partitioned Hartree potential by multipole expansion.
  | Original multipole sum: apparent total charge =   0.520240E-12
  | Sum of charges compensated after spline to logarithmic grids =  -0.148977E-03
  | Analytical far-field extrapolation by fixed multipoles:
  | Hartree multipole sum: apparent total charge =   0.520252E-12
  Summing up the Hartree potential.
  Time summed over all CPUs for potential: real work        2.070 s, elapsed        2.070 s
  | RMS charge density error from multipole expansion :   0.187710E-01
  | Average real-space part of the electrostatic potential :      0.24447025 eV

  Integrating Hamiltonian matrix: batch-based integration.
  Time summed over all CPUs for integration: real work        2.069 s, elapsed        2.069 s

  Updating Kohn-Sham eigenvalues and eigenvectors using ELSI and the (modified) LAPACK eigensolver.
  Starting LAPACK eigensolver
  Finished Cholesky decomposition
  | Time :     0.001 s
  Finished transformation to standard eigenproblem
  | Time :     0.002 s
  Finished solving standard eigenproblem
  | Time :     0.004 s
  Finished back-transformation of eigenvectors
  | Time :     0.000 s

  Obtaining occupation numbers and chemical potential using ELSI.
  | Chemical potential (Fermi level):    -5.45274923 eV
  What follows are estimated values for band gap, HOMO, LUMO, etc.
  | They are estimated on a discrete k-point grid and not necessarily exact.
  | For converged numbers, create a DOS and/or band structure plot on a denser k-grid.

  Highest occupied state (VBM) at     -5.49733259 eV (relative to internal zero)
  | Occupation number:      2.00000000
  | K-point:       1 at    0.000000    0.000000    0.000000 (in units of recip. lattice)

  Lowest unoccupied state (CBM) at    -4.74078016 eV (relative to internal zero)
  | Occupation number:      0.00000000
  | K-point:      21 at    0.166667    0.000000    0.000000 (in units of recip. lattice)

  ESTIMATED overall HOMO-LUMO gap:      0.75655243 eV between HOMO at k-point 1 and LUMO at k-point 21
  | This appears to be an indirect band gap.
  | Smallest direct gap :      0.90124341 eV for k_point 1 at    0.000000    0.000000    0.000000 (in units of recip. lattice)
  The gap value is above 0.2 eV. Unless you are using a very sparse k-point grid,
  this system is most likely an insulator or a semiconductor.

  Total energy components:
  | Sum of eigenvalues            :       -1314.58491491 Ha      -35771.67557750 eV
  | XC energy correction          :        -166.83853576 Ha       -4539.90754590 eV
  | XC potential correction       :         215.44696004 Ha        5862.61006906 eV
  | Free-atom electrostatic energy:       -1055.37100643 Ha      -28718.10624617 eV
  | Hartree energy correction     :          -1.59000050 Ha         -43.26611484 eV
  | Entropy correction            :          -0.00000000 Ha          -0.00000000 eV
  | ---------------------------
  | Total energy                  :       -2322.93749755 Ha      -63210.34541535 eV
  | Total energy, T -> 0          :       -2322.93749755 Ha      -63210.34541535 eV  <-- do not rely on this value for anything but (periodic) metals
  | Electronic free energy        :       -2322.93749755 Ha      -63210.34541535 eV

  Derived energy quantities:
  | Kinetic energy                :        2327.93063249 Ha       63346.21553004 eV
  | Electrostatic energy          :       -4484.02959429 Ha     -122016.65339949 eV
  | Energy correction for multipole
  | error in Hartree potential    :           0.04615299 Ha           1.25588682 eV
  | Sum of eigenvalues per atom                           :       -4471.45944719 eV
  | Total energy (T->0) per atom                          :       -7901.29317692 eV  <-- do not rely on this value for anything but (periodic) metals
  | Electronic free energy per atom                       :       -7901.29317692 eV
  Evaluating new KS density using the density matrix
  Evaluating density matrix
  Time summed over all CPUs for getting density from density matrix: real work        3.968 s, elapsed        3.968 s
  Integration grid: deviation in total charge (<rho> - N_e) =  -1.293188E-12

  Self-consistency convergence accuracy:
  | Change of charge density      :  0.1662E-01
  | Change of sum of eigenvalues  : -0.8014E+01 eV
  | Change of total energy        :  0.8522E-02 eV


------------------------------------------------------------
  End self-consistency iteration #     4       :  max(cpu_time)    wall_clock(cpu1)
  | Time for this iteration                     :       10.538 s          10.539 s
  | Charge density update                       :        4.075 s           4.075 s
  | Density mixing & preconditioning            :        1.188 s           1.188 s
  | Hartree multipole update                    :        0.006 s           0.005 s
  | Hartree multipole summation                 :        2.090 s           2.090 s
  | Integration                                 :        2.069 s           2.069 s
  | Solution of K.-S. eqns.                     :        1.110 s           1.110 s
  | Total energy evaluation                     :        0.000 s           0.001 s

  Partial memory accounting:
  | Current value for overall tracked memory usage:
  |   Minimum:       32.981 MB (on task 0)
  |   Maximum:       32.981 MB (on task 0)
  |   Average:       32.981 MB
  | Peak value for overall tracked memory usage:
  |   Minimum:       39.325 MB (on task 0 after allocating gradient_basis_wave)
  |   Maximum:       39.325 MB (on task 0 after allocating gradient_basis_wave)
  |   Average:       39.325 MB
  | Largest tracked array allocation so far:
  |   Minimum:       27.344 MB (KS_eigenvector_complex on task 0)
  |   Maximum:       27.344 MB (KS_eigenvector_complex on task 0)
  |   Average:       27.344 MB
  Note:  These values currently only include a subset of arrays which are explicitly tracked.
  The "true" memory usage will be greater.
------------------------------------------------------------

------------------------------------------------------------
          Begin self-consistency iteration #    5

  Date     :  20230927, Time     :  135924.512
------------------------------------------------------------
  Pulay mixing of updated and previous charge densities.
  Renormalizing the density to the exact electron count on the 3D integration grid.
  | Formal number of electrons (from input files) :     112.0000000000
  | Integrated number of electrons on 3D grid     :     112.0031727153
  | Charge integration error                      :       0.0031727153
  | Normalization factor for density and gradient :       0.9999716730

  Evaluating partitioned Hartree potential by multipole expansion.
  | Original multipole sum: apparent total charge =  -0.355527E-12
  | Sum of charges compensated after spline to logarithmic grids =  -0.154985E-03
  | Analytical far-field extrapolation by fixed multipoles:
  | Hartree multipole sum: apparent total charge =  -0.355281E-12
  Summing up the Hartree potential.
  Time summed over all CPUs for potential: real work        1.935 s, elapsed        1.935 s
  | RMS charge density error from multipole expansion :   0.189324E-01
  | Average real-space part of the electrostatic potential :      0.23127397 eV

  Integrating Hamiltonian matrix: batch-based integration.
  Time summed over all CPUs for integration: real work        1.925 s, elapsed        1.925 s

  Updating Kohn-Sham eigenvalues and eigenvectors using ELSI and the (modified) LAPACK eigensolver.
  Starting LAPACK eigensolver
  Finished Cholesky decomposition
  | Time :     0.001 s
  Finished transformation to standard eigenproblem
  | Time :     0.001 s
  Finished solving standard eigenproblem
  | Time :     0.005 s
  Finished back-transformation of eigenvectors
  | Time :     0.000 s

  Obtaining occupation numbers and chemical potential using ELSI.
  | Chemical potential (Fermi level):    -5.46340262 eV
  What follows are estimated values for band gap, HOMO, LUMO, etc.
  | They are estimated on a discrete k-point grid and not necessarily exact.
  | For converged numbers, create a DOS and/or band structure plot on a denser k-grid.

  Highest occupied state (VBM) at     -5.50797113 eV (relative to internal zero)
  | Occupation number:      2.00000000
  | K-point:       1 at    0.000000    0.000000    0.000000 (in units of recip. lattice)

  Lowest unoccupied state (CBM) at    -4.74564894 eV (relative to internal zero)
  | Occupation number:      0.00000000
  | K-point:      21 at    0.166667    0.000000    0.000000 (in units of recip. lattice)

  ESTIMATED overall HOMO-LUMO gap:      0.76232219 eV between HOMO at k-point 1 and LUMO at k-point 21
  | This appears to be an indirect band gap.
  | Smallest direct gap :      0.90687338 eV for k_point 1 at    0.000000    0.000000    0.000000 (in units of recip. lattice)
  The gap value is above 0.2 eV. Unless you are using a very sparse k-point grid,
  this system is most likely an insulator or a semiconductor.

  Total energy components:
  | Sum of eigenvalues            :       -1314.73644706 Ha      -35775.79897717 eV
  | XC energy correction          :        -166.83799287 Ha       -4539.89277320 eV
  | XC potential correction       :         215.44543171 Ha        5862.56848093 eV
  | Free-atom electrostatic energy:       -1055.37100643 Ha      -28718.10624617 eV
  | Hartree energy correction     :          -1.43733764 Ha         -39.11194712 eV
  | Entropy correction            :          -0.00000000 Ha          -0.00000000 eV
  | ---------------------------
  | Total energy                  :       -2322.93735230 Ha      -63210.34146273 eV
  | Total energy, T -> 0          :       -2322.93735230 Ha      -63210.34146273 eV  <-- do not rely on this value for anything but (periodic) metals
  | Electronic free energy        :       -2322.93735230 Ha      -63210.34146273 eV

  Derived energy quantities:
  | Kinetic energy                :        2328.00976524 Ha       63348.36884180 eV
  | Electrostatic energy          :       -4484.10912467 Ha     -122018.81753134 eV
  | Energy correction for multipole
  | error in Hartree potential    :           0.04636136 Ha           1.26155692 eV
  | Sum of eigenvalues per atom                           :       -4471.97487215 eV
  | Total energy (T->0) per atom                          :       -7901.29268284 eV  <-- do not rely on this value for anything but (periodic) metals
  | Electronic free energy per atom                       :       -7901.29268284 eV
  Evaluating new KS density using the density matrix
  Evaluating density matrix
  Time summed over all CPUs for getting density from density matrix: real work        3.939 s, elapsed        3.939 s
  Integration grid: deviation in total charge (<rho> - N_e) =  -1.378453E-12

  Self-consistency convergence accuracy:
  | Change of charge density      :  0.6201E-02
  | Change of sum of eigenvalues  : -0.4123E+01 eV
  | Change of total energy        :  0.3953E-02 eV


------------------------------------------------------------
  End self-consistency iteration #     5       :  max(cpu_time)    wall_clock(cpu1)
  | Time for this iteration                     :       10.115 s          10.115 s
  | Charge density update                       :        4.068 s           4.068 s
  | Density mixing & preconditioning            :        1.089 s           1.089 s
  | Hartree multipole update                    :        0.006 s           0.006 s
  | Hartree multipole summation                 :        1.955 s           1.955 s
  | Integration                                 :        1.925 s           1.925 s
  | Solution of K.-S. eqns.                     :        1.072 s           1.072 s
  | Total energy evaluation                     :        0.000 s           0.000 s

  Partial memory accounting:
  | Current value for overall tracked memory usage:
  |   Minimum:       32.981 MB (on task 0)
  |   Maximum:       32.981 MB (on task 0)
  |   Average:       32.981 MB
  | Peak value for overall tracked memory usage:
  |   Minimum:       39.325 MB (on task 0 after allocating gradient_basis_wave)
  |   Maximum:       39.325 MB (on task 0 after allocating gradient_basis_wave)
[...]
   ----------------------------------------------------------------
   Total forces(   3)            :  0.674049E-02 -0.700676E-07  0.199004E-06
  atom #    4
   Hellmann-Feynman              :  0.740627E-02  0.118556E-06  0.190673E-06
   Ionic forces                  :  0.000000E+00  0.000000E+00  0.000000E+00
   Multipole                     : -0.189276E-02 -0.796329E-08  0.175337E-07
   Hartree pot. SCF incomplete   :  0.887804E-06 -0.216419E-10  0.707036E-10
   Pulay + GGA                   :  0.122610E-02 -0.155280E-06 -0.755101E-08
   ----------------------------------------------------------------
   Total forces(   4)            :  0.674049E-02 -0.447092E-07  0.200726E-06
  atom #    5
   Hellmann-Feynman              :  0.264970E-01 -0.263278E-01 -0.263278E-01
   Ionic forces                  :  0.000000E+00  0.000000E+00  0.000000E+00
   Multipole                     :  0.250848E-02  0.315212E-02  0.315209E-02
   Hartree pot. SCF incomplete   :  0.955833E-06  0.668415E-05  0.668405E-05
   Pulay + GGA                   : -0.750806E-03  0.403046E-01  0.403044E-01
   ----------------------------------------------------------------
   Total forces(   5)            :  0.282556E-01  0.171356E-01  0.171354E-01
  atom #    6
   Hellmann-Feynman              :  0.264970E-01  0.263275E-01  0.263275E-01
   Ionic forces                  :  0.000000E+00  0.000000E+00  0.000000E+00
   Multipole                     :  0.250848E-02 -0.315210E-02 -0.315213E-02
   Hartree pot. SCF incomplete   :  0.955849E-06 -0.668408E-05 -0.668414E-05
   Pulay + GGA                   : -0.750800E-03 -0.403043E-01 -0.403044E-01
   ----------------------------------------------------------------
   Total forces(   6)            :  0.282556E-01 -0.171355E-01 -0.171358E-01
  atom #    7
   Hellmann-Feynman              :  0.256964E-01  0.266751E-01 -0.266754E-01
   Ionic forces                  :  0.000000E+00  0.000000E+00  0.000000E+00
   Multipole                     :  0.250548E-02 -0.310171E-02  0.310170E-02
   Hartree pot. SCF incomplete   :  0.644761E-06 -0.603363E-05  0.603360E-05
   Pulay + GGA                   : -0.210640E-03 -0.402616E-01  0.402617E-01
   ----------------------------------------------------------------
   Total forces(   7)            :  0.279919E-01 -0.166942E-01  0.166940E-01
  atom #    8
   Hellmann-Feynman              :  0.256964E-01 -0.266754E-01  0.266750E-01
   Ionic forces                  :  0.000000E+00  0.000000E+00  0.000000E+00
   Multipole                     :  0.250548E-02  0.310172E-02 -0.310173E-02
   Hartree pot. SCF incomplete   :  0.644701E-06  0.603372E-05 -0.603371E-05
   Pulay + GGA                   : -0.210643E-03  0.402619E-01 -0.402617E-01
   ----------------------------------------------------------------
   Total forces(   8)            :  0.279919E-01  0.166943E-01 -0.166944E-01


  Self-consistency convergence accuracy:
  | Change of charge density      :  0.3659E-06
  | Change of sum of eigenvalues  :  0.4020E-06 eV
  | Change of total energy        : -0.6546E-08 eV
  | Change of forces              :  0.4724E-01 eV/A

  Writing Kohn-Sham eigenvalues.
  K-point:       1 at    0.000000    0.000000    0.000000 (in units of recip. lattice)

  State    Occupation    Eigenvalue [Ha]    Eigenvalue [eV]
      1       2.00000         -65.768406        -1789.64937
      2       2.00000         -65.768406        -1789.64937
      3       2.00000         -65.768357        -1789.64805
      4       2.00000         -65.768356        -1789.64801
      5       2.00000         -65.768356        -1789.64801
      6       2.00000         -65.768355        -1789.64798
      7       2.00000         -65.768306        -1789.64666
      8       2.00000         -65.768306        -1789.64666
      9       2.00000          -5.123507         -139.41772
     10       2.00000          -5.123427         -139.41556
     11       2.00000          -5.123426         -139.41552
     12       2.00000          -5.123425         -139.41550
     13       2.00000          -5.123425         -139.41548
     14       2.00000          -5.123424         -139.41545
     15       2.00000          -5.123422         -139.41541
     16       2.00000          -5.123343         -139.41325
     17       2.00000          -3.507615          -95.44707
     18       2.00000          -3.507613          -95.44700
     19       2.00000          -3.507610          -95.44692
     20       2.00000          -3.507609          -95.44691
     21       2.00000          -3.507607          -95.44684
     22       2.00000          -3.507605          -95.44679
     23       2.00000          -3.507556          -95.44545
     24       2.00000          -3.507554          -95.44539
     25       2.00000          -3.507551          -95.44531
     26       2.00000          -3.507363          -95.44021
     27       2.00000          -3.507360          -95.44011
     28       2.00000          -3.507357          -95.44003
     29       2.00000          -3.507357          -95.44003
     30       2.00000          -3.507354          -95.43997
     31       2.00000          -3.507351          -95.43988
     32       2.00000          -3.507167          -95.43488
     33       2.00000          -3.507159          -95.43465
     34       2.00000          -3.507153          -95.43449
     35       2.00000          -3.507113          -95.43340
     36       2.00000          -3.507106          -95.43321
     37       2.00000          -3.507103          -95.43314
     38       2.00000          -3.507103          -95.43314
     39       2.00000          -3.507101          -95.43307
     40       2.00000          -3.507090          -95.43276
     41       2.00000          -0.616740          -16.78235
     42       2.00000          -0.479025          -13.03494
     43       2.00000          -0.478739          -13.02716
     44       2.00000          -0.478456          -13.01946
     45       2.00000          -0.478456          -13.01945
     46       2.00000          -0.478175          -13.01180
     47       2.00000          -0.477886          -13.00395
     48       2.00000          -0.298222           -8.11503
     49       2.00000          -0.297995           -8.10885
     50       2.00000          -0.297962           -8.10796
     51       2.00000          -0.297960           -8.10790
     52       2.00000          -0.297930           -8.10708
     53       2.00000          -0.297703           -8.10090
     54       2.00000          -0.203277           -5.53145
     55       2.00000          -0.202858           -5.52006
     56       2.00000          -0.202437           -5.50859
     57       0.00000          -0.169069           -4.60060
     58       0.00000          -0.168927           -4.59675
     59       0.00000          -0.168642           -4.58898
     60       0.00000          -0.168641           -4.58895
     61       0.00000          -0.168360           -4.58131
     62       0.00000          -0.168218           -4.57744
     63       0.00000          -0.122396           -3.33055
     64       0.00000          -0.110581           -3.00907
     65       0.00000          -0.110316           -3.00185
     66       0.00000          -0.110053           -2.99470
     67       0.00000           0.086943            2.36583
     68       0.00000           0.086944            2.36586
     69       0.00000           0.102248            2.78231
     70       0.00000           0.137602            3.74435
     71       0.00000           0.137941            3.75356
     72       0.00000           0.138037            3.75619
     73       0.00000           0.138052            3.75659
     74       0.00000           0.138128            3.75866
     75       0.00000           0.138473            3.76803
     76       0.00000           0.192112            5.22763
     77       0.00000           0.192635            5.24187
     78       0.00000           0.192674            5.24292
     79       0.00000           0.192685            5.24322
     80       0.00000           0.192734            5.24456

  What follows are estimated values for band gap, HOMO, LUMO, etc.
  | They are estimated on a discrete k-point grid and not necessarily exact.
  | For converged numbers, create a DOS and/or band structure plot on a denser k-grid.

  Highest occupied state (VBM) at     -5.50859269 eV (relative to internal zero)
  | Occupation number:      2.00000000
  | K-point:       1 at    0.000000    0.000000    0.000000 (in units of recip. lattice)

  Lowest unoccupied state (CBM) at    -4.74548035 eV (relative to internal zero)
  | Occupation number:      0.00000000
  | K-point:      21 at    0.166667    0.000000    0.000000 (in units of recip. lattice)

  ESTIMATED overall HOMO-LUMO gap:      0.76311234 eV between HOMO at k-point 1 and LUMO at k-point 21
  | This appears to be an indirect band gap.
  | Smallest direct gap :      0.90799167 eV for k_point 1 at    0.000000    0.000000    0.000000 (in units of recip. lattice)
  The gap value is above 0.2 eV. Unless you are using a very sparse k-point grid,
  this system is most likely an insulator or a semiconductor.
  | Chemical Potential                          :    -5.46389817 eV

  Self-consistency cycle converged.


------------------------------------------------------------
  End self-consistency iteration #    13       :  max(cpu_time)    wall_clock(cpu1)
  | Time for this iteration                     :       51.450 s          51.452 s
  | Charge density & force component update     :       38.194 s          38.196 s
  | Density mixing                              :        0.022 s           0.022 s
  | Hartree multipole update                    :        0.007 s           0.007 s
  | Hartree multipole summation                 :        6.318 s           6.319 s
  | Hartree pot. SCF incomplete forces          :        4.094 s           4.094 s
  | Integration                                 :        1.811 s           1.811 s
  | Solution of K.-S. eqns.                     :        1.003 s           1.003 s
  | Total energy evaluation                     :        0.000 s           0.000 s

  Partial memory accounting:
  | Current value for overall tracked memory usage:
  |   Minimum:       32.982 MB (on task 0)
  |   Maximum:       32.982 MB (on task 0)
  |   Average:       32.982 MB
  | Peak value for overall tracked memory usage:
  |   Minimum:       45.872 MB (on task 0 after allocating d_wave)
  |   Maximum:       45.872 MB (on task 0 after allocating d_wave)
  |   Average:       45.872 MB
  | Largest tracked array allocation so far:
  |   Minimum:       27.344 MB (KS_eigenvector_complex on task 0)
  |   Maximum:       27.344 MB (KS_eigenvector_complex on task 0)
  |   Average:       27.344 MB
  Note:  These values currently only include a subset of arrays which are explicitly tracked.
  The "true" memory usage will be greater.
------------------------------------------------------------
  Removing unitary transformations (pure translations, rotations) from forces on atoms.
  Atomic forces before filtering:
  | Net force on center of mass :   0.932781E-06 -0.146342E-07  0.526269E-08 eV/A
  Atomic forces after filtering:
  | Net force on center of mass :  -0.111504E-16  0.000000E+00  0.000000E+00 eV/A

  Energy and forces in a compact form:
  | Total energy uncorrected      :         -0.632103412570009E+05 eV
  | Total energy corrected        :         -0.632103412570009E+05 eV  <-- do not rely on this value for anything but (periodic) metals
  | Electronic free energy        :         -0.632103412570009E+05 eV
  Total atomic forces (unitary forces cleaned) [eV/Ang]:
  |    1         -0.109753664562679E+00         -0.498758682163813E-07          0.197295066919138E-06
  |    2         -0.162215036425191E-01         -0.476091694338690E-07          0.195153455522361E-06
  |    3          0.674037832197142E-02         -0.682382860345540E-07          0.198346232565609E-06
  |    4          0.674037403070086E-02         -0.428799501942710E-07          0.200068142640393E-06
  |    5          0.282554702194744E-01          0.171356339690949E-01          0.171353839738030E-01
  |    6          0.282554755282486E-01         -0.171355236319640E-01         -0.171357811398500E-01
  |    7          0.279917360407649E-01         -0.166941866588652E-01          0.166940322845235E-01
  |    8          0.279917340640374E-01          0.166942849250082E-01         -0.166944259813742E-01

  ------------------------------------ 
  Start decomposition of the XC Energy 
  ------------------------------------ 
  X and C from original XC functional choice 
  Hartree-Fock Energy :          0.000000000 Ha              0.000000000 eV
  X Energy            :       -162.495763809 Ha          -4421.734708640 eV
  C Energy            :         -4.342493954 Ha           -118.165272665 eV
  XC Energy w/o HF    :       -166.838257763 Ha          -4539.899981305 eV
  Total XC Energy     :       -166.838257763 Ha          -4539.899981305 eV
  ------------------------------------ 
  LDA X and C from self-consistent density 
  X Energy LDA        :       -150.255214651 Ha          -4088.652418997 eV
  C Energy LDA        :         -8.565924708 Ha           -233.090670832 eV
  ------------------------------------ 
  End decomposition of the XC Energy 
  ------------------------------------ 

------------------------------------------------------------

------------------------------------------------------------------------------
  Final output of selected total energy values:

  The following output summarizes some interesting total energy values
  at the end of a run (AFTER all relaxation, molecular dynamics, etc.).

  | Total energy of the DFT / Hartree-Fock s.c.f. calculation      :         -63210.341257001 eV
  | Final zero-broadening corrected energy (caution - metals only) :         -63210.341257001 eV
  | For reference only, the value of 1 Hartree used in FHI-aims is :             27.211384500 eV
  | For reference only, the overall average (free atom contribution
  | + realspace contribution) of the electrostatic potential after
  | s.c.f. convergence is                                          :            -11.548343943 eV

  Before relying on these values, please be sure to understand exactly which
  total energy value is referred to by a given number. Different objects may
  all carry the same name 'total energy'. Definitions:

  Total energy of the DFT / Hartree-Fock s.c.f. calculation:
  | Note that this energy does not include ANY quantities calculated after the
  | s.c.f. cycle, in particular not ANY RPA, MP2, etc. many-body perturbation terms.

  Final zero-broadening corrected energy:
  | For metallic systems only, a broadening of the occupation numbers at the Fermi
  | level can be extrapolated back to zero broadening by an electron-gas inspired
  | formula. For all systems that are not real metals, this value can be
  | meaningless and should be avoided.

------------------------------------------------------------------------------
  Methods described in the following list of references were used in this FHI-aims run.
  If you publish the results, please make sure to cite these reference if they apply.
  FHI-aims is an academic code, and for our developers (often, Ph.D. students
  and postdocs), scientific credit in the community is essential.
  Thank you for helping us!

  For any use of FHI-aims, please cite:

    Volker Blum, Ralf Gehrke, Felix Hanke, Paula Havu, Ville Havu,
    Xinguo Ren, Karsten Reuter, and Matthias Scheffler
    'Ab initio molecular simulations with numeric atom-centered orbitals'
    Computer Physics Communications 180, 2175-2196 (2009)
    http://doi.org/10.1016/j.cpc.2009.06.022


  The provided symmetry information was generated with SPGlib:

    Atsushi Togo, Yusuke Seto, Dimitar Pashov
    SPGlib 1.7.3 obtained from http://spglib.sourceforge.net
    Copyright (C) 2008 Atsushi Togo


  The ELSI infrastructure was used in your run to solve the Kohn-Sham electronic structure.
  Please check out http://elsi-interchange.org to learn more.
  If scalability is important for your project, please acknowledge ELSI by citing:

    V. W-z. Yu, F. Corsetti, A. Garcia, W. P. Huhn, M. Jacquelin, W. Jia,
    B. Lange, L. Lin, J. Lu, W. Mi, A. Seifitokaldani, A. Vazquez-Mayagoitia,
    C. Yang, H. Yang, and V. Blum
    'ELSI: A unified software interface for Kohn-Sham electronic structure solvers'
    Computer Physics Communications 222, 267-285 (2018).
    http://doi.org/10.1016/j.cpc.2017.09.007


  For the real-space grid partitioning and parallelization used in this calculation, please cite:

    Ville Havu, Volker Blum, Paula Havu, and Matthias Scheffler,
    'Efficient O(N) integration for all-electron electronic structure calculation'
    'using numerically tabulated basis functions'
    Journal of Computational Physics 228, 8367-8379 (2009).
    http://doi.org/10.1016/j.jcp.2009.08.008

  Of course, there are many other important community references, e.g., those cited in the
  above references. Our list is limited to references that describe implementations in the
  FHI-aims code. The reason is purely practical (length of this list) - please credit others as well.

------------------------------------------------------------
          Leaving FHI-aims.
          Date     :  20230927, Time     :  140139.368

          Computational steps:
          | Number of self-consistency cycles          :           13
          | Number of SCF (re)initializations          :            1

          Detailed time accounting                     :  max(cpu_time)    wall_clock(cpu1)
          | Total time                                  :      188.798 s         188.808 s
          | Preparation time                            :        0.135 s           0.135 s
          | Boundary condition initalization            :        0.090 s           0.090 s
          | Grid partitioning                           :        0.211 s           0.210 s
          | Preloading free-atom quantities on grid     :        0.899 s           0.898 s
          | Free-atom superposition energy              :        0.154 s           0.154 s
          | Total time for integrations                 :       30.328 s          30.331 s
          | Total time for solution of K.-S. equations  :       16.076 s          16.078 s
          | Total time for density & force components   :       92.815 s          92.820 s
          | Total time for mixing & preconditioning     :       13.754 s          13.757 s
          | Total time for Hartree multipole update     :        0.074 s           0.073 s
          | Total time for Hartree multipole sum        :       30.115 s          30.117 s
          | Total time for total energy evaluation      :        0.003 s           0.004 s
          | Total time NSC force correction             :        4.094 s           4.094 s
          | Total time for scaled ZORA corrections      :        0.000 s           0.000 s

          Partial memory accounting:
          | Residual value for overall tracked memory usage across tasks:     0.000000 MB (should be 0.000000 MB)
          | Peak values for overall tracked memory usage:
          |   Minimum:       45.872 MB (on task 0 after allocating d_wave)
          |   Maximum:       45.872 MB (on task 0 after allocating d_wave)
          |   Average:       45.872 MB
          | Largest tracked array allocation:
          |   Minimum:       27.344 MB (KS_eigenvector_complex on task 0)
          |   Maximum:       27.344 MB (KS_eigenvector_complex on task 0)
          |   Average:       27.344 MB
          Note:  These values currently only include a subset of arrays which are explicitly tracked.
          The "true" memory usage will be greater.

          Have a nice day.
------------------------------------------------------------
